ITEM: TIMESTEP
0
ITEM: NUMBER OF ENTRIES
39915
ITEM: BOX BOUNDS pp pp pp
-5.0641212990107931e-02 3.6629058119185203e+01
-5.0641212990107931e-02 3.6629058119185203e+01
-5.0641212990107931e-02 3.6629058119185203e+01
ITEM: ENTRIES index c_mysbond[1] c_mysbond[2] c_mysbond[3] 
1 11455 11454 1 
2 35904 35876 1 
3 35875 35874 1 
4 37181 37180 1 
5 16503 16502 1 
6 9879 9878 1 
7 16500 16499 1 
8 16499 16498 1 
9 25983 25982 1 
10 3283 3282 1 
11 3286 3285 1 
12 3287 3286 1 
13 33209 33208 1 
14 33229 33209 1 
15 33218 33217 1 
16 29731 29730 1 
17 35286 35248 1 
18 23357 23356 1 
19 5152 5127 1 
20 5124 5123 1 
21 14525 14524 1 
22 14527 14526 1 
23 440 439 1 
24 24020 24019 1 
25 9272 9271 1 
26 9271 9270 1 
27 2351 2350 1 
28 2668 2667 1 
29 34650 34649 1 
30 34651 34650 1 
31 35874 35873 1 
32 35873 35872 1 
33 37180 37179 1 
34 37182 37181 1 
35 11853 11852 1 
36 11852 11851 1 
37 11851 11850 1 
38 9877 9876 1 
39 16495 16494 1 
40 25985 25984 1 
41 18093 18088 1 
42 18089 18088 1 
43 29740 29739 1 
44 29739 29738 1 
45 29729 29728 1 
46 29730 29729 1 
47 32399 32361 1 
48 6433 6432 1 
49 12253 12214 1 
50 5151 5113 1 
51 5129 5128 1 
52 14526 14525 1 
53 441 440 1 
54 461 436 1 
55 24021 24020 1 
56 2360 2359 1 
57 2354 2353 1 
58 2666 2665 1 
59 2673 2672 1 
60 28187 28186 1 
61 15366 15365 1 
62 37178 37177 1 
63 35900 35861 1 
64 11850 11849 1 
65 11849 11848 1 
66 11884 11848 1 
67 16496 16495 1 
68 16522 16495 1 
69 25987 25986 1 
70 18084 18083 1 
71 18088 18087 1 
72 18087 18086 1 
73 18092 18087 1 
74 29741 29740 1 
75 37089 37088 1 
76 29738 29737 1 
77 37071 37070 1 
78 6401 6400 1 
79 5113 5112 1 
80 442 441 1 
81 33013 33012 1 
82 2359 2358 1 
83 9023 9022 1 
84 9024 9023 1 
85 2674 2673 1 
86 21538 21506 1 
87 15367 15366 1 
88 35867 35866 1 
89 29818 29817 1 
90 35861 35860 1 
91 35862 35861 1 
92 35860 35859 1 
93 18974 18934 1 
94 11848 11847 1 
95 21351 21317 1 
96 21317 21316 1 
97 21284 21283 1 
98 18086 18085 1 
99 18085 18084 1 
100 37098 37097 1 
101 37088 37087 1 
102 37108 37070 1 
103 37070 37069 1 
104 25607 25606 1 
105 6420 6419 1 
106 6410 6409 1 
107 33001 33000 1 
108 443 442 1 
109 33012 33011 1 
110 9027 9026 1 
111 9026 9025 1 
112 2289 2288 1 
113 21539 21508 1 
114 15337 15336 1 
115 29820 29819 1 
116 18973 18933 1 
117 11847 11846 1 
118 11883 11847 1 
119 21283 21282 1 
120 18082 18081 1 
121 17429 17428 1 
122 4178 4177 1 
123 37096 37095 1 
124 14045 14044 1 
125 37086 37085 1 
126 25608 25607 1 
127 25605 25604 1 
128 6419 6418 1 
129 32381 32380 1 
130 32382 32381 1 
131 32383 32382 1 
132 33011 33010 1 
133 15424 15423 1 
134 9031 9030 1 
135 9030 9029 1 
136 2290 2289 1 
137 21504 21503 1 
138 21507 21506 1 
139 15336 15335 1 
140 11845 11844 1 
141 21281 21280 1 
142 21282 21281 1 
143 21263 21262 1 
144 21262 21261 1 
145 17431 17430 1 
146 17430 17429 1 
147 14049 14048 1 
148 14048 14047 1 
149 14046 14045 1 
150 14047 14046 1 
151 25593 25592 1 
152 25611 25610 1 
153 25604 25603 1 
154 3694 3657 1 
155 24508 24507 1 
156 32384 32383 1 
157 15425 15424 1 
158 33039 33038 1 
159 9041 9040 1 
160 13245 13244 1 
161 13274 13253 1 
162 13251 13250 1 
163 2283 2282 1 
164 2284 2283 1 
165 35118 35117 1 
166 15335 15334 1 
167 14985 14984 1 
168 19690 19689 1 
169 19712 19685 1 
170 19685 19684 1 
171 19686 19685 1 
172 19700 19699 1 
173 21265 21264 1 
174 21264 21263 1 
175 21301 21264 1 
176 4190 4189 1 
177 20163 20162 1 
178 14060 14049 1 
179 20164 20163 1 
180 25591 25590 1 
181 26975 26974 1 
182 26973 26972 1 
183 3656 3655 1 
184 3657 3656 1 
185 24506 24505 1 
186 13232 13231 1 
187 32404 32385 1 
188 32405 32387 1 
189 32387 32386 1 
190 32388 32387 1 
191 13241 13240 1 
192 9042 9041 1 
193 13253 13252 1 
194 13252 13251 1 
195 32123 32089 1 
196 2321 2284 1 
197 35119 35118 1 
198 35120 35119 1 
199 14986 14985 1 
200 19720 19719 1 
201 19755 19722 1 
202 19689 19688 1 
203 19687 19686 1 
204 10969 10968 1 
205 19618 19596 1 
206 21267 21266 1 
207 19591 19590 1 
208 4189 4188 1 
209 4191 4190 1 
210 36681 36680 1 
211 14238 14237 1 
212 26974 26973 1 
213 24502 24501 1 
214 24504 24503 1 
215 36156 36155 1 
216 13272 13236 1 
217 35056 35033 1 
218 13239 13238 1 
219 13238 13237 1 
220 13240 13239 1 
221 32392 32391 1 
222 32396 32395 1 
223 32397 32396 1 
224 32091 32090 1 
225 37680 37679 1 
226 37679 37678 1 
227 14987 14986 1 
228 19721 19720 1 
229 19722 19721 1 
230 3813 3812 1 
231 10970 10969 1 
232 10979 10970 1 
233 21268 21267 1 
234 19590 19589 1 
235 4188 4187 1 
236 4192 4191 1 
237 4193 4192 1 
238 36682 36681 1 
239 25583 25582 1 
240 26978 26977 1 
241 25586 25585 1 
242 24501 24500 1 
243 24503 24502 1 
244 36155 36154 1 
245 36158 36157 1 
246 36159 36158 1 
247 36184 36159 1 
248 9194 9193 1 
249 4384 4377 1 
250 32395 32394 1 
251 32085 32084 1 
252 32087 32086 1 
253 32088 32087 1 
254 37677 37676 1 
255 37678 37677 1 
256 14988 14987 1 
257 19757 19727 1 
258 19723 19722 1 
259 3812 3811 1 
260 17857 17856 1 
261 17863 17857 1 
262 3431 3430 1 
263 21271 21270 1 
264 4201 4192 1 
265 19585 19584 1 
266 36683 36682 1 
267 25621 25583 1 
268 25584 25583 1 
269 24528 24500 1 
270 24500 24499 1 
271 24499 24498 1 
272 10469 10468 1 
273 10468 10467 1 
274 10467 10466 1 
275 10466 10465 1 
276 36161 36160 1 
277 26626 26625 1 
278 4375 4374 1 
279 32084 32083 1 
280 9005 8991 1 
281 32086 32085 1 
282 9000 8999 1 
283 8999 8998 1 
284 37686 37685 1 
285 19727 19726 1 
286 19725 19724 1 
287 17854 17853 1 
288 17855 17854 1 
289 27920 27919 1 
290 4929 4893 1 
291 27919 27918 1 
292 27911 27910 1 
293 27909 27908 1 
294 27907 27906 1 
295 27905 27904 1 
296 29945 29944 1 
297 29946 29945 1 
298 27890 27889 1 
299 27891 27890 1 
300 36147 36146 1 
301 36148 36147 1 
302 36150 36149 1 
303 10470 10469 1 
304 9332 9331 1 
305 26634 26626 1 
306 4373 4372 1 
307 4374 4373 1 
308 4376 4375 1 
309 8984 8983 1 
310 8840 8839 1 
311 8841 8840 1 
312 8990 8989 1 
313 11258 11257 1 
314 15013 14997 1 
315 19732 19731 1 
316 19733 19732 1 
317 19731 19730 1 
318 19729 19728 1 
319 9676 9675 1 
320 5951 5950 1 
321 4893 4892 1 
322 4894 4893 1 
323 27910 27909 1 
324 27908 27907 1 
325 29955 29954 1 
326 2738 2737 1 
327 2737 2736 1 
328 9333 9332 1 
329 9329 9328 1 
330 26624 26623 1 
331 4363 4362 1 
332 8986 8985 1 
333 11262 11261 1 
334 14997 14996 1 
335 19734 19733 1 
336 19735 19734 1 
337 2773 2772 1 
338 9673 9672 1 
339 9674 9673 1 
340 9678 9677 1 
341 9677 9676 1 
342 21692 21673 1 
343 5954 5953 1 
344 29969 29968 1 
345 1815 1814 1 
346 1816 1815 1 
347 16896 16876 1 
348 2740 2739 1 
349 9344 9343 1 
350 2736 2735 1 
351 10460 10459 1 
352 40213 40212 1 
353 9328 9327 1 
354 9367 9327 1 
355 731 694 1 
356 4362 4361 1 
357 8839 8838 1 
358 18896 18895 1 
359 11263 11262 1 
360 18931 18902 1 
361 14999 14998 1 
362 19736 19735 1 
363 9690 9683 1 
364 9671 9670 1 
365 9679 9678 1 
366 9669 9668 1 
367 9668 9667 1 
368 9666 9665 1 
369 9665 9664 1 
370 9664 9663 1 
371 21683 21682 1 
372 1837 1836 1 
373 30174 30173 1 
374 40247 40246 1 
375 40248 40247 1 
376 16876 16875 1 
377 28953 28921 1 
378 16886 16885 1 
379 40241 40214 1 
380 40214 40213 1 
381 40240 40211 1 
382 696 695 1 
383 697 696 1 
384 22104 22103 1 
385 8836 8835 1 
386 8837 8836 1 
387 40463 40462 1 
388 18898 18897 1 
389 37695 37694 1 
390 15003 15002 1 
391 15004 15003 1 
392 9684 9683 1 
393 9683 9682 1 
394 9682 9681 1 
395 8465 8464 1 
396 8467 8466 1 
397 9648 9647 1 
398 4917 4916 1 
399 21682 21681 1 
400 26171 26170 1 
401 1833 1832 1 
402 1832 1831 1 
403 1831 1830 1 
404 2 1 1 
405 40249 40248 1 
406 40251 40250 1 
407 16895 16875 1 
408 16875 16874 1 
409 16879 16878 1 
410 16880 16879 1 
411 16883 16882 1 
412 28919 28918 1 
413 40211 40210 1 
414 36173 36172 1 
415 698 697 1 
416 22103 22102 1 
417 38682 38681 1 
418 40471 40464 1 
419 34283 34282 1 
420 37694 37693 1 
421 34418 34417 1 
422 17334 17333 1 
423 8464 8463 1 
424 9649 9648 1 
425 9650 9649 1 
426 9685 9650 1 
427 4916 4915 1 
428 21678 21677 1 
429 26170 26169 1 
430 1859 1830 1 
431 40273 40272 1 
432 40274 40273 1 
433 40253 40252 1 
434 40252 40251 1 
435 40260 40259 1 
436 40261 40260 1 
437 16881 16880 1 
438 28917 28916 1 
439 28918 28917 1 
440 10471 10432 1 
441 733 709 1 
442 10432 10431 1 
443 36174 36173 1 
444 701 700 1 
445 700 699 1 
446 38681 38680 1 
447 15250 15249 1 
448 15284 15250 1 
449 34285 34284 1 
450 21857 21856 1 
451 10058 10041 1 
452 34420 34419 1 
453 34453 34419 1 
454 34419 34418 1 
455 17360 17333 1 
456 17335 17334 1 
457 8463 8462 1 
458 8493 8486 1 
459 9651 9650 1 
460 9686 9651 1 
461 9658 9657 1 
462 13 12 1 
463 14 13 1 
464 19 18 1 
465 7 6 1 
466 40278 40277 1 
467 40276 40275 1 
468 40275 40274 1 
469 40259 40258 1 
470 20285 20284 1 
471 709 708 1 
472 707 706 1 
473 705 704 1 
474 704 703 1 
475 703 702 1 
476 39315 39314 1 
477 38916 38915 1 
478 38915 38914 1 
479 21853 21852 1 
480 21854 21853 1 
481 21856 21855 1 
482 34422 34421 1 
483 34416 34415 1 
484 6643 6642 1 
485 8462 8461 1 
486 8461 8460 1 
487 8486 8485 1 
488 37288 37287 1 
489 37287 37286 1 
490 11914 11913 1 
491 11916 11915 1 
492 8 7 1 
493 40277 40276 1 
494 11926 11925 1 
495 40286 40258 1 
496 23090 23089 1 
497 718 717 1 
498 717 716 1 
499 713 712 1 
500 708 707 1 
501 39324 39323 1 
502 39318 39317 1 
503 38917 38916 1 
504 38918 38917 1 
505 38914 38913 1 
506 15285 15252 1 
507 21862 21861 1 
508 21863 21862 1 
509 21865 21864 1 
510 6646 6645 1 
511 6650 6649 1 
512 6651 6650 1 
513 8460 8459 1 
514 8458 8457 1 
515 8457 8456 1 
516 37294 37279 1 
517 9 8 1 
518 40282 40281 1 
519 21257 21233 1 
520 21233 21232 1 
521 23084 23083 1 
522 23091 23090 1 
523 14189 14188 1 
524 39333 39332 1 
525 39326 39325 1 
526 39325 39324 1 
527 39323 39322 1 
528 38922 38921 1 
529 38921 38920 1 
530 38920 38919 1 
531 21835 21834 1 
532 21849 21848 1 
533 21850 21849 1 
534 34299 34298 1 
535 34295 34294 1 
536 21868 21867 1 
537 21866 21865 1 
538 9092 9091 1 
539 6648 6647 1 
540 6633 6632 1 
541 6657 6656 1 
542 8455 8454 1 
543 37281 37280 1 
544 37278 37277 1 
545 37277 37276 1 
546 37276 37275 1 
547 11833 11832 1 
548 11835 11834 1 
549 21234 21233 1 
550 609 608 1 
551 610 609 1 
552 611 610 1 
553 23085 23084 1 
554 23081 23080 1 
555 14187 14186 1 
556 14188 14187 1 
557 39358 39334 1 
558 39334 39333 1 
559 39355 39326 1 
560 39354 39325 1 
561 38923 38922 1 
562 22739 22700 1 
563 22700 22699 1 
564 21848 21847 1 
565 34296 34295 1 
566 9063 9062 1 
567 25137 25136 1 
568 9091 9090 1 
569 9097 9081 1 
570 6634 6633 1 
571 6656 6655 1 
572 7351 7343 1 
573 7342 7341 1 
574 6383 6382 1 
575 6382 6381 1 
576 11831 11830 1 
577 11824 11823 1 
578 612 611 1 
579 613 612 1 
580 23106 23081 1 
581 23076 23075 1 
582 39359 39335 1 
583 13750 13749 1 
584 39335 39334 1 
585 13751 13750 1 
586 13753 13752 1 
587 38929 38928 1 
588 38924 38923 1 
589 22738 22699 1 
590 8698 8697 1 
591 8699 8698 1 
592 8705 8704 1 
593 8706 8705 1 
594 25133 25132 1 
595 25135 25134 1 
596 9082 9081 1 
597 9081 9080 1 
598 9080 9079 1 
599 8452 8451 1 
600 10865 10864 1 
601 7343 7342 1 
602 40087 40086 1 
603 6381 6380 1 
604 11830 11829 1 
605 11826 11825 1 
606 20181 20180 1 
607 21239 21238 1 
608 23075 23074 1 
609 14198 14186 1 
610 14197 14183 1 
611 13893 13892 1 
612 28317 28316 1 
613 28319 28318 1 
614 21549 21548 1 
615 21548 21547 1 
616 8697 8696 1 
617 8728 8706 1 
618 8707 8706 1 
619 8708 8707 1 
620 25134 25133 1 
621 501 500 1 
622 9083 9082 1 
623 6659 6620 1 
624 6620 6619 1 
625 7955 7954 1 
626 8450 8449 1 
627 21179 21178 1 
628 10863 10862 1 
629 40086 40085 1 
630 6380 6379 1 
631 6379 6378 1 
632 40103 40090 1 
633 20182 20181 1 
634 2871 2870 1 
635 2902 2869 1 
636 628 627 1 
637 14183 14182 1 
638 13891 13890 1 
639 28342 28317 1 
640 28318 28317 1 
641 28346 28335 1 
642 28341 28302 1 
643 8726 8702 1 
644 8703 8702 1 
645 38581 38580 1 
646 494 493 1 
647 36315 36314 1 
648 8001 8000 1 
649 7956 7955 1 
650 7981 7955 1 
651 21206 21181 1 
652 6378 6377 1 
653 10856 10855 1 
654 20183 20182 1 
655 2903 2871 1 
656 20184 20183 1 
657 2870 2869 1 
658 627 626 1 
659 2594 2593 1 
660 2592 2591 1 
661 13890 13889 1 
662 35563 35562 1 
663 13899 13898 1 
664 13898 13897 1 
665 34532 34531 1 
666 34530 34529 1 
667 28345 28332 1 
668 8711 8710 1 
669 38582 38581 1 
670 492 491 1 
671 36314 36313 1 
672 36311 36310 1 
673 8002 8001 1 
674 3049 3033 1 
675 7996 7995 1 
676 34471 34470 1 
677 34469 34468 1 
678 34468 34467 1 
679 34466 34465 1 
680 21184 21183 1 
681 21182 21181 1 
682 40081 40080 1 
683 40080 40079 1 
684 6376 6375 1 
685 20185 20184 1 
686 20189 20188 1 
687 2595 2594 1 
688 14179 14178 1 
689 14180 14179 1 
690 10920 10919 1 
691 10919 10918 1 
692 35561 35560 1 
693 35615 35580 1 
694 35553 35552 1 
695 35551 35550 1 
696 35547 35546 1 
697 8715 8714 1 
698 8717 8716 1 
699 8716 8715 1 
700 8718 8717 1 
701 38583 38582 1 
702 572 571 1 
703 511 489 1 
704 3023 3022 1 
705 3026 3025 1 
706 3033 3032 1 
707 34472 34471 1 
708 34473 34472 1 
709 34477 34476 1 
710 34467 34466 1 
711 21183 21182 1 
712 18000 17963 1 
713 32231 32230 1 
714 6375 6374 1 
715 20199 20198 1 
716 20197 20196 1 
717 20193 20192 1 
718 20192 20191 1 
719 14177 14176 1 
720 14178 14177 1 
721 10917 10916 1 
722 35560 35559 1 
723 35554 35553 1 
724 4578 4577 1 
725 35550 35549 1 
726 21564 21563 1 
727 8733 8718 1 
728 568 567 1 
729 567 566 1 
730 3024 3023 1 
731 3027 3026 1 
732 3032 3031 1 
733 3038 3037 1 
734 34474 34473 1 
735 34501 34467 1 
736 17966 17965 1 
737 17963 17962 1 
738 17961 17960 1 
739 32232 32231 1 
740 376 375 1 
741 20198 20197 1 
742 32271 32270 1 
743 14167 14166 1 
744 14196 14178 1 
745 10916 10915 1 
746 27627 27626 1 
747 14127 14126 1 
748 14128 14127 1 
749 14130 14129 1 
750 35556 35555 1 
751 35555 35554 1 
752 4577 4576 1 
753 4576 4575 1 
754 4579 4578 1 
755 21566 21565 1 
756 18360 18359 1 
757 38598 38597 1 
758 12918 12917 1 
759 34498 34497 1 
760 8645 8644 1 
761 8644 8643 1 
762 28814 28780 1 
763 21166 21165 1 
764 21169 21168 1 
765 9474 9473 1 
766 17962 17961 1 
767 382 381 1 
768 874 863 1 
769 32272 32271 1 
770 32273 32272 1 
771 14166 14165 1 
772 14165 14164 1 
773 10927 10898 1 
774 27626 27625 1 
775 10931 10924 1 
776 35557 35556 1 
777 4575 4574 1 
778 21567 21566 1 
779 18370 18360 1 
780 18359 18358 1 
781 18369 18359 1 
782 5618 5617 1 
783 480 479 1 
784 12922 12921 1 
785 12924 12923 1 
786 8642 8641 1 
787 34502 34474 1 
788 8640 8639 1 
789 28779 28778 1 
790 36870 36869 1 
791 28805 28804 1 
792 18001 17965 1 
793 9507 9476 1 
794 32227 32226 1 
795 381 380 1 
796 380 379 1 
797 864 863 1 
798 843 842 1 
799 847 846 1 
800 13515 13514 1 
801 10906 10905 1 
802 10910 10909 1 
803 10909 10908 1 
804 22760 22759 1 
805 16438 16437 1 
806 21568 21567 1 
807 5610 5609 1 
808 5611 5610 1 
809 5643 5618 1 
810 5617 5616 1 
811 479 478 1 
812 509 480 1 
813 12927 12926 1 
814 12925 12924 1 
815 6084 6083 1 
816 6085 6084 1 
817 28778 28777 1 
818 28804 28803 1 
819 28818 28805 1 
820 32258 32218 1 
821 32222 32221 1 
822 32224 32223 1 
823 834 833 1 
824 865 864 1 
825 841 840 1 
826 844 843 1 
827 10890 10889 1 
828 10896 10895 1 
829 13518 13517 1 
830 13514 13513 1 
831 14161 14160 1 
832 22779 22778 1 
833 22778 22777 1 
834 22777 22776 1 
835 22776 22775 1 
836 22787 22767 1 
837 5609 5608 1 
838 5623 5622 1 
839 508 479 1 
840 12929 12928 1 
841 12928 12927 1 
842 6105 6104 1 
843 6113 6104 1 
844 34684 34683 1 
845 34682 34681 1 
846 34688 34687 1 
847 34680 34679 1 
848 28777 28776 1 
849 36868 36867 1 
850 36885 36868 1 
851 9486 9485 1 
852 32259 32221 1 
853 32221 32220 1 
854 833 832 1 
855 866 865 1 
856 838 837 1 
857 840 839 1 
858 13519 13518 1 
859 14160 14159 1 
860 27645 27622 1 
861 14192 14155 1 
862 22790 22775 1 
863 22772 22771 1 
864 22769 22768 1 
865 8437 8436 1 
866 5621 5620 1 
867 37719 37718 1 
868 12930 12929 1 
869 6104 6103 1 
870 39152 39151 1 
871 39151 39150 1 
872 39175 39152 1 
873 34683 34682 1 
874 34675 34674 1 
875 28774 28773 1 
876 36867 36866 1 
877 18195 18194 1 
878 872 840 1 
879 10892 10891 1 
880 10893 10892 1 
881 18511 18510 1 
882 18512 18511 1 
883 27611 27610 1 
884 14159 14158 1 
885 14158 14157 1 
886 14156 14155 1 
887 14114 14113 1 
888 34185 34175 1 
889 22788 22769 1 
890 8440 8439 1 
891 37731 37730 1 
892 12938 12937 1 
893 12933 12932 1 
894 12934 12933 1 
895 12950 12930 1 
896 39153 39152 1 
897 34673 34672 1 
898 37162 37161 1 
899 20707 20706 1 
900 36865 36864 1 
901 1894 1893 1 
902 1893 1892 1 
903 18200 18199 1 
904 18193 18192 1 
905 18197 18196 1 
906 324 294 1 
907 40172 40171 1 
908 23374 23373 1 
909 9859 9858 1 
910 18510 18509 1 
911 9873 9856 1 
912 27609 27608 1 
913 27608 27607 1 
914 14193 14156 1 
915 14148 14115 1 
916 34177 34176 1 
917 14112 14111 1 
918 16454 16453 1 
919 18011 18010 1 
920 37730 37729 1 
921 14557 14556 1 
922 12937 12936 1 
923 12936 12935 1 
924 12935 12934 1 
925 12951 12934 1 
926 39156 39155 1 
927 6076 6075 1 
928 37163 37162 1 
929 20704 20703 1 
930 20703 20702 1 
931 36881 36858 1 
932 36861 36860 1 
933 36882 36861 1 
934 18205 18204 1 
935 18198 18197 1 
936 18199 18198 1 
937 40185 40184 1 
938 40171 40170 1 
939 23375 23374 1 
940 34144 34143 1 
941 34145 34144 1 
942 27607 27606 1 
943 27606 27605 1 
944 17155 17154 1 
945 16458 16457 1 
946 16459 16458 1 
947 9243 9242 1 
948 18012 18011 1 
949 37729 37728 1 
950 14556 14555 1 
951 14550 14549 1 
952 18724 18723 1 
953 15784 15759 1 
954 39157 39156 1 
955 34669 34668 1 
956 6073 6072 1 
957 6075 6074 1 
958 37164 37163 1 
959 20712 20702 1 
960 18206 18205 1 
961 18233 18205 1 
962 40186 40185 1 
963 40162 40161 1 
964 40169 40168 1 
965 23386 23375 1 
966 33154 33153 1 
967 34146 34145 1 
968 34151 34150 1 
969 34153 34152 1 
970 27605 27604 1 
971 17154 17153 1 
972 20618 20581 1 
973 20583 20582 1 
974 18013 18012 1 
975 14541 14540 1 
976 14544 14543 1 
977 14543 14542 1 
978 14547 14546 1 
979 14548 14547 1 
980 15751 15750 1 
981 15752 15751 1 
982 15759 15758 1 
983 39167 39166 1 
984 34668 34667 1 
985 34667 34666 1 
986 37188 37187 1 
987 37196 37164 1 
988 16514 16513 1 
989 16529 16513 1 
990 16724 16723 1 
991 26501 26500 1 
992 26502 26501 1 
993 26499 26498 1 
994 40190 40189 1 
995 40154 40153 1 
996 33146 33145 1 
997 33147 33146 1 
998 33177 33145 1 
999 33153 33152 1 
1000 22234 22233 1 
1001 23362 23361 1 
1002 23361 23360 1 
1003 17147 17146 1 
1004 17146 17145 1 
1005 17153 17152 1 
1006 17152 17151 1 
1007 18029 18028 1 
1008 20582 20581 1 
1009 24015 24014 1 
1010 14540 14539 1 
1011 15055 15020 1 
1012 2337 2336 1 
1013 15753 15752 1 
1014 15755 15754 1 
1015 26276 26275 1 
1016 26275 26274 1 
1017 34666 34665 1 
1018 37186 37185 1 
1019 37185 37184 1 
1020 37167 37166 1 
1021 37168 37167 1 
1022 16727 16726 1 
1023 16728 16727 1 
1024 26500 26499 1 
1025 40197 40191 1 
1026 40191 40190 1 
1027 40160 40159 1 
1028 40155 40154 1 
1029 40153 40152 1 
1030 33212 33211 1 
1031 33213 33212 1 
1032 22236 22235 1 
1033 22249 22236 1 
1034 23360 23359 1 
1035 17145 17144 1 
1036 17151 17150 1 
1037 18028 18027 1 
1038 24017 24016 1 
1039 14560 14540 1 
1040 9269 9268 1 
1041 11477 11456 1 
1042 15754 15753 1 
1043 2369 2331 1 
1044 26274 26273 1 
1045 26310 26274 1 
1046 34663 34662 1 
1047 35905 35877 1 
1048 34662 34661 1 
1049 37173 37172 1 
1050 37184 37183 1 
1051 16505 16504 1 
1052 16504 16503 1 
1053 16525 16504 1 
1054 16502 16501 1 
1055 16501 16500 1 
1056 13404 13403 1 
1057 16521 16492 1 
1058 25995 25983 1 
1059 3284 3283 1 
1060 3285 3284 1 
1061 3288 3287 1 
1062 3319 3288 1 
1063 33214 33213 1 
1064 33215 33214 1 
1065 33217 33216 1 
1066 6430 6429 1 
1067 6428 6427 1 
1068 12222 12221 1 
1069 12221 12220 1 
1070 5125 5124 1 
1071 38561 38560 1 
1072 14528 14527 1 
1073 14529 14528 1 
1074 24018 24017 1 
1075 11454 11453 1 
1076 2332 2331 1 
1077 2331 2330 1 
1078 2330 2329 1 
1079 35903 35874 1 
1080 37174 37173 1 
1081 11862 11861 1 
1082 11863 11862 1 
1083 16493 16492 1 
1084 25984 25983 1 
1085 33208 33207 1 
1086 33219 33218 1 
1087 23358 23357 1 
1088 35248 35247 1 
1089 23356 23355 1 
1090 23381 23355 1 
1091 5127 5126 1 
1092 17621 17620 1 
1093 24037 24026 1 
1094 24026 24025 1 
1095 9273 9272 1 
1096 2352 2351 1 
1097 2667 2666 1 
1098 2669 2668 1 
1099 34652 34651 1 
1100 33975 33974 1 
1101 37175 37174 1 
1102 37176 37175 1 
1103 37177 37176 1 
1104 37198 37177 1 
1105 11855 11854 1 
1106 11864 11863 1 
1107 9878 9877 1 
1108 21352 21323 1 
1109 12162 12130 1 
1110 16494 16493 1 
1111 12161 12126 1 
1112 12122 12121 1 
1113 33228 33208 1 
1114 29745 29727 1 
1115 29727 29726 1 
1116 33220 33219 1 
1117 12214 12213 1 
1118 12215 12214 1 
1119 5128 5127 1 
1120 17620 17619 1 
1121 439 438 1 
1122 24022 24021 1 
1123 24023 24022 1 
1124 2353 2352 1 
1125 9036 9035 1 
1126 2675 2674 1 
1127 2672 2671 1 
1128 34653 34652 1 
1129 34654 34653 1 
1130 35872 35871 1 
1131 35871 35870 1 
1132 11854 11853 1 
1133 11865 11864 1 
1134 21323 21322 1 
1135 25988 25987 1 
1136 12123 12122 1 
1137 12121 12120 1 
1138 37084 37083 1 
1139 29728 29727 1 
1140 37068 37067 1 
1141 37072 37071 1 
1142 6402 6401 1 
1143 5112 5111 1 
1144 17625 17624 1 
1145 437 436 1 
1146 438 437 1 
1147 436 435 1 
1148 435 434 1 
1149 434 433 1 
1150 9035 9034 1 
1151 9034 9033 1 
1152 21523 21522 1 
1153 21524 21523 1 
1154 21525 21524 1 
1155 21526 21525 1 
1156 15368 15367 1 
1157 35870 35869 1 
1158 35869 35868 1 
1159 11866 11865 1 
1160 21321 21320 1 
1161 21318 21317 1 
1162 20133 20132 1 
1163 20134 20133 1 
1164 18081 18080 1 
1165 18083 18082 1 
1166 37095 37094 1 
1167 37094 37093 1 
1168 37090 37089 1 
1169 37085 37084 1 
1170 37069 37068 1 
1171 39773 39770 1 
1172 39770 39769 1 
1173 6405 6404 1 
1174 6408 6407 1 
1175 6409 6408 1 
1176 17627 17626 1 
1177 444 443 1 
1178 460 435 1 
1179 9033 9032 1 
1180 21508 21507 1 
1181 15369 15368 1 
1182 15371 15370 1 
1183 35868 35867 1 
1184 29817 29816 1 
1185 35899 35860 1 
1186 19706 19705 1 
1187 21320 21319 1 
1188 10962 10961 1 
1189 18079 18078 1 
1190 18080 18079 1 
1191 18091 18082 1 
1192 4177 4176 1 
1193 4179 4178 1 
1194 37092 37091 1 
1195 37091 37090 1 
1196 25610 25609 1 
1197 25609 25608 1 
1198 6406 6405 1 
1199 6407 6406 1 
1200 17637 17627 1 
1201 3663 3662 1 
1202 9040 9039 1 
1203 9032 9031 1 
1204 21515 21514 1 
1205 21514 21513 1 
1206 2282 2281 1 
1207 21509 21508 1 
1208 35128 35127 1 
1209 19708 19676 1 
1210 19711 19684 1 
1211 19705 19704 1 
1212 19703 19702 1 
1213 19704 19703 1 
1214 10963 10962 1 
1215 3439 3438 1 
1216 4182 4181 1 
1217 4181 4180 1 
1218 4180 4179 1 
1219 14050 14049 1 
1220 14051 14050 1 
1221 25612 25611 1 
1222 25613 25612 1 
1223 26972 26971 1 
1224 3658 3657 1 
1225 32385 32384 1 
1226 3664 3663 1 
1227 15460 15425 1 
1228 15427 15426 1 
1229 9053 9046 1 
1230 13246 13245 1 
1231 13250 13249 1 
1232 21541 21514 1 
1233 21511 21510 1 
1234 21510 21509 1 
1235 21540 21509 1 
1236 35126 35125 1 
1237 35127 35126 1 
1238 19681 19680 1 
1239 19682 19681 1 
1240 19683 19682 1 
1241 19684 19683 1 
1242 19702 19701 1 
1243 19701 19700 1 
1244 3440 3439 1 
1245 3438 3437 1 
1246 3437 3436 1 
1247 4183 4182 1 
1248 20173 20163 1 
1249 14059 14047 1 
1250 20165 20164 1 
1251 25590 25589 1 
1252 26971 26970 1 
1253 24495 24494 1 
1254 24527 24497 1 
1255 38145 38144 1 
1256 24529 24508 1 
1257 32386 32385 1 
1258 15426 15425 1 
1259 9043 9042 1 
1260 13244 13243 1 
1261 39988 39987 1 
1262 37681 37680 1 
1263 19719 19718 1 
1264 19754 19719 1 
1265 12052 12051 1 
1266 12051 12050 1 
1267 12050 12049 1 
1268 10968 10967 1 
1269 21266 21265 1 
1270 3459 3437 1 
1271 3434 3433 1 
1272 3436 3435 1 
1273 19589 19588 1 
1274 19588 19587 1 
1275 20162 20161 1 
1276 20161 20160 1 
1277 20166 20165 1 
1278 25582 25581 1 
1279 25622 25587 1 
1280 25587 25586 1 
1281 24496 24495 1 
1282 24497 24496 1 
1283 38146 38145 1 
1284 38144 38143 1 
1285 38143 38142 1 
1286 35032 35031 1 
1287 35033 35032 1 
1288 13242 13241 1 
1289 13243 13242 1 
1290 8858 8857 1 
1291 32082 32081 1 
1292 39989 39988 1 
1293 39990 39989 1 
1294 39991 39990 1 
1295 37683 37682 1 
1296 37682 37681 1 
1297 35121 35120 1 
1298 35122 35121 1 
1299 3810 3809 1 
1300 12053 12052 1 
1301 12054 12053 1 
1302 12049 12048 1 
1303 3432 3431 1 
1304 3435 3434 1 
1305 4199 4187 1 
1306 4187 4186 1 
1307 19587 19586 1 
1308 19586 19585 1 
1309 20168 20167 1 
1310 20167 20166 1 
1311 25585 25584 1 
1312 24498 24497 1 
1313 36183 36157 1 
1314 36157 36156 1 
1315 38142 38141 1 
1316 8979 8978 1 
1317 8980 8979 1 
1318 8981 8980 1 
1319 8982 8981 1 
1320 32083 32082 1 
1321 32122 32088 1 
1322 37676 37675 1 
1323 37684 37683 1 
1324 14989 14988 1 
1325 15012 14991 1 
1326 3811 3810 1 
1327 3430 3429 1 
1328 4928 4927 1 
1329 21269 21268 1 
1330 3458 3435 1 
1331 21270 21269 1 
1332 19583 19582 1 
1333 19584 19583 1 
1334 29948 29947 1 
1335 2745 2744 1 
1336 2744 2743 1 
1337 36145 36144 1 
1338 36144 36143 1 
1339 38150 38149 1 
1340 38151 38150 1 
1341 38152 38151 1 
1342 10479 10466 1 
1343 26627 26626 1 
1344 8983 8982 1 
1345 8869 8853 1 
1346 9001 9000 1 
1347 37685 37684 1 
1348 14990 14989 1 
1349 14991 14990 1 
1350 19726 19725 1 
1351 19756 19726 1 
1352 17851 17850 1 
1353 17852 17851 1 
1354 17853 17852 1 
1355 4927 4926 1 
1356 3429 3428 1 
1357 12035 12034 1 
1358 12036 12035 1 
1359 39827 39826 1 
1360 29952 29951 1 
1361 29951 29950 1 
1362 29944 29943 1 
1363 29947 29946 1 
1364 29974 29947 1 
1365 2769 2744 1 
1366 36146 36145 1 
1367 2742 2741 1 
1368 36149 36148 1 
1369 36180 36149 1 
1370 38167 38134 1 
1371 9331 9330 1 
1372 9330 9329 1 
1373 26625 26624 1 
1374 26621 26620 1 
1375 8977 8976 1 
1376 8976 8975 1 
1377 8975 8974 1 
1378 8985 8984 1 
1379 8842 8841 1 
1380 9002 9001 1 
1381 37687 37686 1 
1382 14993 14992 1 
1383 2812 2772 1 
1384 17849 17848 1 
1385 17850 17849 1 
1386 5950 5949 1 
1387 5949 5948 1 
1388 4926 4925 1 
1389 4925 4924 1 
1390 12037 12036 1 
1391 29954 29953 1 
1392 29973 29943 1 
1393 29943 29942 1 
1394 16869 16868 1 
1395 2741 2740 1 
1396 9368 9342 1 
1397 2768 2737 1 
1398 9334 9333 1 
1399 9335 9334 1 
1400 40207 40206 1 
1401 26623 26622 1 
1402 694 693 1 
1403 8974 8973 1 
1404 11294 11257 1 
1405 11257 11256 1 
1406 11256 11255 1 
1407 14996 14995 1 
1408 14995 14994 1 
1409 2774 2773 1 
1410 17860 17844 1 
1411 4892 4891 1 
1412 4891 4890 1 
1413 4890 4889 1 
1414 39859 39830 1 
1415 40246 40245 1 
1416 40245 40244 1 
1417 16870 16869 1 
1418 9343 9342 1 
1419 40216 40215 1 
1420 40215 40214 1 
1421 9336 9335 1 
1422 695 694 1 
1423 692 691 1 
1424 8972 8971 1 
1425 40461 40460 1 
1426 18895 18894 1 
1427 18901 18900 1 
1428 18902 18901 1 
1429 14998 14997 1 
1430 19759 19736 1 
1431 19737 19736 1 
1432 2775 2774 1 
1433 9680 9679 1 
1434 17352 17351 1 
1435 17351 17350 1 
1436 9647 9646 1 
1437 9663 9662 1 
1438 9662 9661 1 
1439 1838 1837 1 
1440 1836 1835 1 
1441 1858 1827 1 
1442 1817 1816 1 
1443 16871 16870 1 
1444 16872 16871 1 
1445 28921 28920 1 
1446 28920 28919 1 
1447 2735 2734 1 
1448 2734 2733 1 
1449 9337 9336 1 
1450 24621 24584 1 
1451 40212 40211 1 
1452 40209 40208 1 
1453 22100 22099 1 
1454 22109 22099 1 
1455 8866 8835 1 
1456 40462 40461 1 
1457 40460 40459 1 
1458 18899 18898 1 
1459 18900 18899 1 
1460 34280 34279 1 
1461 18903 18902 1 
1462 18904 18903 1 
1463 18905 18904 1 
1464 19738 19737 1 
1465 9681 9680 1 
1466 17354 17353 1 
1467 8466 8465 1 
1468 17350 17349 1 
1469 4919 4918 1 
1470 9661 9660 1 
1471 22 21 1 
1472 1835 1834 1 
1473 1829 1828 1 
1474 40254 40253 1 
1475 16874 16873 1 
1476 16873 16872 1 
1477 16882 16881 1 
1478 40210 40209 1 
1479 22102 22101 1 
1480 38683 38682 1 
1481 38684 38683 1 
1482 8835 8834 1 
1483 40470 40463 1 
1484 34281 34280 1 
1485 34282 34281 1 
1486 37693 37692 1 
1487 37692 37691 1 
1488 19739 19738 1 
1489 19740 19739 1 
1490 17338 17337 1 
1491 17347 17346 1 
1492 9687 9652 1 
1493 4918 4917 1 
1494 9660 9659 1 
1495 1841 1840 1 
1496 26173 26171 1 
1497 21 20 1 
1498 1834 1833 1 
1499 1830 1829 1 
1500 1828 1827 1 
1501 40284 40251 1 
1502 20283 20282 1 
1503 16894 16874 1 
1504 20277 20276 1 
1505 2732 2731 1 
1506 2731 2730 1 
1507 36177 36176 1 
1508 36176 36175 1 
1509 36175 36174 1 
1510 24623 24587 1 
1511 38715 38684 1 
1512 38713 38682 1 
1513 8834 8833 1 
1514 15254 15253 1 
1515 15249 15248 1 
1516 15248 15247 1 
1517 21858 21857 1 
1518 34423 34422 1 
1519 34424 34423 1 
1520 34421 34420 1 
1521 17336 17335 1 
1522 17337 17336 1 
1523 10881 10880 1 
1524 17341 17340 1 
1525 17346 17345 1 
1526 9652 9651 1 
1527 9659 9658 1 
1528 1842 1841 1 
1529 12 11 1 
1530 20 19 1 
1531 11 10 1 
1532 40289 40280 1 
1533 11928 11927 1 
1534 40257 40256 1 
1535 20284 20283 1 
1536 28952 28917 1 
1537 710 709 1 
1538 702 701 1 
1539 39316 39315 1 
1540 38943 38916 1 
1541 15265 15264 1 
1542 15253 15252 1 
1543 15251 15250 1 
1544 21840 21839 1 
1545 21859 21858 1 
1546 21861 21860 1 
1547 21880 21865 1 
1548 6663 6646 1 
1549 34414 34413 1 
1550 34415 34414 1 
1551 10878 10877 1 
1552 17342 17341 1 
1553 17361 17343 1 
1554 9657 9656 1 
1555 11915 11914 1 
1556 11917 11916 1 
1557 10 9 1 
1558 40279 40278 1 
1559 40280 40279 1 
1560 11927 11926 1 
1561 40258 40257 1 
1562 23089 23088 1 
1563 20286 20285 1 
1564 716 715 1 
1565 714 713 1 
1566 711 710 1 
1567 24597 24596 1 
1568 24595 24594 1 
1569 39317 39316 1 
1570 15269 15268 1 
1571 15252 15251 1 
1572 34320 34299 1 
1573 21879 21860 1 
1574 21860 21859 1 
1575 3786 3785 1 
1576 6647 6646 1 
1577 6649 6648 1 
1578 10879 10878 1 
1579 10877 10876 1 
1580 10876 10875 1 
1581 37284 37283 1 
1582 37286 37285 1 
1583 37275 37274 1 
1584 37274 37273 1 
1585 40281 40280 1 
1586 21235 21234 1 
1587 11925 11924 1 
1588 23086 23085 1 
1589 645 621 1 
1590 14190 14189 1 
1591 712 711 1 
1592 24598 24597 1 
1593 38927 38926 1 
1594 38919 38918 1 
1595 21836 21835 1 
1596 21838 21837 1 
1597 21837 21836 1 
1598 21844 21843 1 