ITEM: TIMESTEP
0
ITEM: NUMBER OF ENTRIES
35190
ITEM: BOX BOUNDS pp pp pp
1.5470308940102484e-02 3.6562946597253564e+01
1.5470308940102484e-02 3.6562946597253564e+01
1.5470308940102484e-02 3.6562946597253564e+01
ITEM: ENTRIES index c_mysbond[1] c_mysbond[2] c_mysbond[3] 
1 14246 14245 1 
2 35457 35456 1 
3 35458 35457 1 
4 35459 35458 1 
5 35460 35459 1 
6 11640 11606 1 
7 11639 11605 1 
8 11602 11601 1 
9 31960 31954 1 
10 31953 31952 1 
11 31929 31928 1 
12 31930 31929 1 
13 11575 11574 1 
14 11574 11573 1 
15 11569 11568 1 
16 590 589 1 
17 11965 11951 1 
18 11944 11943 1 
19 34156 34155 1 
20 25778 25777 1 
21 12393 12392 1 
22 29200 29199 1 
23 1197 1196 1 
24 1215 1214 1 
25 1232 1196 1 
26 14245 14244 1 
27 14248 14247 1 
28 14249 14248 1 
29 32600 32599 1 
30 11638 11601 1 
31 11601 11600 1 
32 8744 8743 1 
33 31955 31927 1 
34 31931 31930 1 
35 31933 31932 1 
36 3476 3475 1 
37 11573 11572 1 
38 592 591 1 
39 13720 13719 1 
40 11942 11941 1 
41 34157 34156 1 
42 25780 25779 1 
43 25777 25776 1 
44 12392 12391 1 
45 29197 29196 1 
46 29196 29195 1 
47 13474 13473 1 
48 14254 14248 1 
49 21092 21091 1 
50 21095 21094 1 
51 31941 31940 1 
52 31936 31935 1 
53 29283 29261 1 
54 29261 29260 1 
55 29260 29259 1 
56 11572 11571 1 
57 13741 13740 1 
58 13740 13739 1 
59 13739 13738 1 
60 11963 11942 1 
61 25784 25783 1 
62 25783 25782 1 
63 25775 25774 1 
64 25776 25775 1 
65 29194 29193 1 
66 29195 29194 1 
67 3563 3562 1 
68 35775 35774 1 
69 35784 35773 1 
70 35783 35767 1 
71 21089 21088 1 
72 21119 21096 1 
73 31944 31943 1 
74 31940 31939 1 
75 31938 31937 1 
76 8702 8701 1 
77 29259 29258 1 
78 13759 13741 1 
79 13757 13737 1 
80 13737 13736 1 
81 17531 17530 1 
82 25785 25784 1 
83 1234 1205 1 
84 1205 1204 1 
85 29193 29192 1 
86 5867 5866 1 
87 30378 30340 1 
88 18808 18807 1 
89 1880 1879 1 
90 1881 1880 1 
91 1878 1877 1 
92 21088 21087 1 
93 21083 21082 1 
94 21106 21105 1 
95 31939 31938 1 
96 31957 31939 1 
97 32325 32307 1 
98 8725 8702 1 
99 5632 5631 1 
100 5633 5632 1 
101 2993 2992 1 
102 2994 2993 1 
103 17528 17527 1 
104 17530 17529 1 
105 27474 27473 1 
106 27472 27471 1 
107 27498 27470 1 
108 27466 27465 1 
109 29192 29191 1 
110 5866 5865 1 
111 30340 30339 1 
112 30341 30340 1 
113 18826 18811 1 
114 18809 18808 1 
115 16438 16428 1 
116 1877 1876 1 
117 35764 35763 1 
118 35766 35765 1 
119 21084 21083 1 
120 21111 21110 1 
121 21110 21109 1 
122 21105 21104 1 
123 21122 21105 1 
124 32307 32306 1 
125 286 285 1 
126 285 284 1 
127 275 274 1 
128 5629 5628 1 
129 5630 5629 1 
130 3017 3016 1 
131 3018 3017 1 
132 27473 27472 1 
133 27470 27469 1 
134 27469 27468 1 
135 27468 27467 1 
136 27458 27457 1 
137 30339 30338 1 
138 35318 35317 1 
139 18811 18810 1 
140 18810 18809 1 
141 32981 32969 1 
142 6647 6646 1 
143 18796 18795 1 
144 18824 18796 1 
145 10570 10569 1 
146 10571 10570 1 
147 19482 19481 1 
148 20368 20367 1 
149 32308 32307 1 
150 284 283 1 
151 29276 29237 1 
152 29275 29235 1 
153 29245 29244 1 
154 29251 29250 1 
155 20348 20347 1 
156 32421 32408 1 
157 30846 30845 1 
158 11298 11297 1 
159 27461 27460 1 
160 27459 27458 1 
161 35319 35318 1 
162 32975 32974 1 
163 32969 32968 1 
164 6648 6647 1 
165 6653 6652 1 
166 35781 35760 1 
167 32329 32321 1 
168 10572 10571 1 
169 19483 19482 1 
170 32311 32310 1 
171 20365 20364 1 
172 20364 20363 1 
173 20363 20362 1 
174 29238 29237 1 
175 29241 29240 1 
176 29248 29247 1 
177 29250 29249 1 
178 29249 29248 1 
179 20350 20349 1 
180 20351 20350 1 
181 20349 20348 1 
182 20347 20346 1 
183 3024 3023 1 
184 27735 27734 1 
185 27734 27733 1 
186 11297 11296 1 
187 11296 11295 1 
188 30358 30357 1 
189 19150 19115 1 
190 4393 4359 1 
191 32973 32972 1 
192 32971 32970 1 
193 6652 6651 1 
194 35754 35753 1 
195 35743 35742 1 
196 35742 35741 1 
197 35741 35740 1 
198 32312 32311 1 
199 19500 19499 1 
200 20362 20361 1 
201 20361 20360 1 
202 20354 20353 1 
203 20352 20351 1 
204 11317 11295 1 
205 11295 11294 1 
206 30815 30814 1 
207 30464 30463 1 
208 30463 30462 1 
209 4363 4362 1 
210 4364 4363 1 
211 29306 29305 1 
212 29304 29303 1 
213 29303 29302 1 
214 18783 18782 1 
215 18782 18781 1 
216 35755 35754 1 
217 35753 35752 1 
218 31686 31685 1 
219 19486 19485 1 
220 32327 32313 1 
221 309 308 1 
222 310 309 1 
223 19501 19500 1 
224 20357 20356 1 
225 20355 20354 1 
226 20353 20352 1 
227 28267 28266 1 
228 3035 3026 1 
229 24934 24933 1 
230 30820 30819 1 
231 19109 19108 1 
232 30817 30816 1 
233 30462 30461 1 
234 4366 4365 1 
235 4365 4364 1 
236 29301 29300 1 
237 6623 6622 1 
238 35751 35750 1 
239 35750 35749 1 
240 35749 35748 1 
241 31687 31686 1 
242 19488 19487 1 
243 19487 19486 1 
244 307 306 1 
245 19503 19502 1 
246 31819 31809 1 
247 31808 31807 1 
248 31818 31805 1 
249 28266 28265 1 
250 7945 7944 1 
251 31811 31775 1 
252 30821 30820 1 
253 30826 30825 1 
254 30827 30826 1 
255 30469 30468 1 
256 30467 30466 1 
257 29309 29308 1 
258 29308 29307 1 
259 29307 29306 1 
260 8815 8814 1 
261 12760 12759 1 
262 31689 31688 1 
263 31688 31687 1 
264 306 305 1 
265 19519 19504 1 
266 19505 19504 1 
267 31809 31808 1 
268 31810 31809 1 
269 19082 19081 1 
270 19083 19082 1 
271 19103 19079 1 
272 28254 28253 1 
273 28264 28263 1 
274 11314 11281 1 
275 11283 11282 1 
276 30863 30862 1 
277 30862 30861 1 
278 32653 32626 1 
279 30841 30813 1 
280 29310 29309 1 
281 29311 29310 1 
282 29312 29311 1 
283 26105 26104 1 
284 33255 33254 1 
285 8812 8811 1 
286 12761 12760 1 
287 19507 19506 1 
288 19506 19505 1 
289 19513 19512 1 
290 19514 19513 1 
291 34782 34767 1 
292 28251 28250 1 
293 11282 11281 1 
294 11284 11283 1 
295 24510 24481 1 
296 32627 32626 1 
297 30840 30811 1 
298 29320 29319 1 
299 33256 33255 1 
300 16343 16342 1 
301 12762 12761 1 
302 22820 22819 1 
303 22819 22818 1 
304 22818 22817 1 
305 34004 34003 1 
306 22874 22864 1 
307 22865 22864 1 
308 5131 5093 1 
309 5094 5093 1 
310 5095 5094 1 
311 34771 34770 1 
312 34769 34768 1 
313 28285 28246 1 
314 7262 7227 1 
315 24481 24480 1 
316 24482 24481 1 
317 2017 2016 1 
318 2016 2015 1 
319 9358 9357 1 
320 4372 4371 1 
321 29317 29316 1 
322 34861 34860 1 
323 34860 34859 1 
324 8370 8364 1 
325 12593 12592 1 
326 12592 12591 1 
327 22866 22865 1 
328 5098 5097 1 
329 5097 5096 1 
330 5096 5095 1 
331 3735 3734 1 
332 28246 28245 1 
333 28247 28246 1 
334 4485 4453 1 
335 4452 4451 1 
336 4451 4450 1 
337 7226 7225 1 
338 12099 12071 1 
339 2018 2017 1 
340 1437 1436 1 
341 9359 9358 1 
342 4373 4372 1 
343 29318 29317 1 
344 29319 29318 1 
345 34862 34861 1 
346 34858 34857 1 
347 34859 34858 1 
348 8365 8364 1 
349 12591 12590 1 
350 12590 12589 1 
351 17871 17870 1 
352 17903 17866 1 
353 17907 17891 1 
354 2271 2270 1 
355 3737 3736 1 
356 3734 3733 1 
357 7245 7244 1 
358 7244 7243 1 
359 29602 29601 1 
360 4457 4456 1 
361 4469 4468 1 
362 4470 4469 1 
363 12071 12070 1 
364 35887 35886 1 
365 2019 2018 1 
366 1470 1436 1 
367 1436 1435 1 
368 4374 4373 1 
369 29325 29324 1 
370 17800 17799 1 
371 17811 17803 1 
372 17804 17803 1 
373 26075 26074 1 
374 26074 26073 1 
375 12598 12590 1 
376 17870 17869 1 
377 17866 17865 1 
378 22854 22853 1 
379 22852 22851 1 
380 2272 2271 1 
381 3728 3727 1 
382 3729 3728 1 
383 3732 3731 1 
384 29604 29603 1 
385 29600 29599 1 
386 29599 29598 1 
387 4462 4461 1 
388 4468 4467 1 
389 12068 12067 1 
390 12069 12068 1 
391 26233 26232 1 
392 35886 35885 1 
393 1469 1434 1 
394 1295 1294 1 
395 1296 1295 1 
396 8353 8352 1 
397 26073 26072 1 
398 17879 17878 1 
399 17878 17877 1 
400 17905 17877 1 
401 22855 22854 1 
402 24399 24398 1 
403 22851 22850 1 
404 2273 2272 1 
405 2274 2273 1 
406 26426 26425 1 
407 3730 3729 1 
408 24553 24513 1 
409 29605 29604 1 
410 29598 29597 1 
411 7948 7918 1 
412 4466 4465 1 
413 12067 12066 1 
414 26232 26231 1 
415 26252 26232 1 
416 26226 26225 1 
417 4380 4379 1 
418 4381 4380 1 
419 1294 1293 1 
420 17783 17782 1 
421 17784 17783 1 
422 17794 17793 1 
423 17795 17794 1 
424 26110 26072 1 
425 26072 26071 1 
426 17887 17886 1 
427 12595 12559 1 
428 3724 3723 1 
429 26432 26423 1 
430 33481 33480 1 
431 33482 33481 1 
432 4702 4701 1 
433 29606 29605 1 
434 7919 7918 1 
435 33322 33321 1 
436 33336 33335 1 
437 33330 33329 1 
438 33329 33328 1 
439 33331 33330 1 
440 26221 26220 1 
441 26223 26222 1 
442 15739 15738 1 
443 15740 15739 1 
444 1293 1292 1 
445 17786 17785 1 
446 8347 8346 1 
447 16988 16965 1 
448 17885 17884 1 
449 26415 26414 1 
450 26416 26415 1 
451 26422 26421 1 
452 3720 3719 1 
453 3718 3717 1 
454 10927 10926 1 
455 4704 4703 1 
456 4703 4702 1 
457 29589 29588 1 
458 29593 29592 1 
459 33348 33323 1 
460 33332 33331 1 
461 26220 26219 1 
462 15737 15736 1 
463 15738 15737 1 
464 11918 11903 1 
465 1705 1670 1 
466 4427 4426 1 
467 4443 4428 1 
468 16966 16965 1 
469 1511 1510 1 
470 26429 26402 1 
471 12556 12555 1 
472 12557 12556 1 
473 26412 26411 1 
474 26417 26416 1 
475 3751 3719 1 
476 3719 3718 1 
477 10929 10928 1 
478 24605 24604 1 
479 4705 4704 1 
480 4719 4706 1 
481 29592 29591 1 
482 29610 29592 1 
483 31822 31821 1 
484 13560 13526 1 
485 15736 15735 1 
486 1674 1673 1 
487 1673 1672 1 
488 1671 1670 1 
489 1670 1669 1 
490 11414 11413 1 
491 4428 4427 1 
492 16969 16968 1 
493 16968 16967 1 
494 16967 16966 1 
495 21304 21303 1 
496 1512 1511 1 
497 24380 24379 1 
498 34429 34428 1 
499 34428 34427 1 
500 34449 34422 1 
501 21639 21624 1 
502 24606 24605 1 
503 15418 15417 1 
504 4706 4705 1 
505 26358 26357 1 
506 14922 14921 1 
507 23971 23970 1 
508 33347 33310 1 
509 11877 11876 1 
510 13541 13540 1 
511 11411 11410 1 
512 4429 4428 1 
513 4430 4429 1 
514 21305 21304 1 
515 1513 1512 1 
516 11349 11348 1 
517 34451 34430 1 
518 34430 34429 1 
519 34448 34421 1 
520 34422 34421 1 
521 34423 34422 1 
522 21623 21622 1 
523 15413 15412 1 
524 15417 15416 1 
525 26365 26364 1 
526 26364 26363 1 
527 26362 26361 1 
528 14947 14923 1 
529 14923 14922 1 
530 33311 33310 1 
531 33310 33309 1 
532 33309 33308 1 
533 13530 13529 1 
534 13561 13529 1 
535 27584 27546 1 
536 13540 13539 1 
537 33964 33963 1 
538 33963 33962 1 
539 28918 28917 1 
540 4433 4432 1 
541 4435 4434 1 
542 11344 11343 1 
543 11345 11344 1 
544 34446 34407 1 
545 34447 34418 1 
546 34419 34418 1 
547 7637 7636 1 
548 7635 7634 1 
549 7674 7635 1 
550 15412 15411 1 
551 26363 26362 1 
552 8019 8018 1 
553 14948 14924 1 
554 14949 14925 1 
555 745 744 1 
556 13531 13530 1 
557 27546 27545 1 
558 28883 28882 1 
559 13543 13542 1 
560 13544 13543 1 
561 23181 23180 1 
562 33962 33961 1 
563 28923 28908 1 
564 28919 28918 1 
565 28917 28916 1 
566 11340 11339 1 
567 11343 11342 1 
568 34443 34404 1 
569 34404 34403 1 
570 3629 3628 1 
571 3628 3627 1 
572 21633 21594 1 
573 7636 7635 1 
574 15409 15408 1 
575 15410 15409 1 
576 26368 26367 1 
577 8025 8024 1 
578 8020 8019 1 
579 8021 8020 1 
580 746 745 1 
581 744 743 1 
582 13562 13532 1 
583 27551 27550 1 
584 28886 28885 1 
585 28885 28884 1 
586 23180 23179 1 
587 28908 28907 1 
588 28915 28914 1 
589 3639 3638 1 
590 11342 11341 1 
591 3634 3633 1 
592 24290 24289 1 
593 18769 18768 1 
594 3626 3625 1 
595 7676 7647 1 
596 7648 7647 1 
597 7649 7648 1 
598 15408 15407 1 
599 25026 25025 1 
600 15448 15423 1 
601 8016 8015 1 
602 8026 8025 1 
603 8027 8026 1 
604 8029 8028 1 
605 753 752 1 
606 754 753 1 
607 755 754 1 
608 6514 6513 1 
609 6513 6512 1 
610 27560 27559 1 
611 27552 27551 1 
612 27556 27555 1 
613 28887 28886 1 
614 13545 13544 1 
615 13546 13545 1 
616 28922 28906 1 
617 17483 17482 1 
618 3640 3639 1 
619 3641 3640 1 
620 3657 3634 1 
621 24288 24287 1 
622 18768 18767 1 
623 3625 3624 1 
624 7650 7649 1 
625 21278 21277 1 
626 25027 25026 1 
627 8015 8014 1 
628 8041 8014 1 
629 751 750 1 
630 27563 27562 1 
631 27561 27560 1 
632 27554 27553 1 
633 30721 30720 1 
634 13547 13546 1 
635 17480 17479 1 
636 17481 17480 1 
637 17479 17478 1 
638 17482 17481 1 
639 28924 28913 1 
640 28913 28912 1 
641 3642 3641 1 
642 14430 14429 1 
643 18778 18768 1 
644 29020 29019 1 
645 1256 1255 1 
646 25467 25466 1 
647 25455 25454 1 
648 25454 25453 1 
649 25453 25452 1 
650 25449 25448 1 
651 3798 3764 1 
652 8014 8013 1 
653 3756 3755 1 
654 8009 8008 1 
655 27565 27564 1 
656 27575 27574 1 
657 27562 27561 1 
658 27581 27580 1 
659 30720 30719 1 
660 30722 30721 1 
661 23174 23173 1 
662 13567 13547 1 
663 23173 23172 1 
664 17477 17476 1 
665 23188 23169 1 
666 2368 2367 1 
667 2367 2366 1 
668 14427 14426 1 
669 14431 14430 1 
670 14445 14431 1 
671 12717 12716 1 
672 12716 12715 1 
673 29021 29020 1 
674 1257 1256 1 
675 7677 7656 1 
676 7657 7656 1 
677 25451 25450 1 
678 25450 25449 1 
679 25445 25444 1 
680 25446 25445 1 
681 8010 8009 1 
682 27566 27565 1 
683 27572 27571 1 
684 27576 27575 1 
685 27580 27579 1 
686 12474 12473 1 
687 23191 23174 1 
688 23172 23171 1 
689 30731 30730 1 
690 2381 2380 1 
691 2377 2376 1 
692 14442 14422 1 
693 14420 14419 1 
694 26768 26767 1 
695 5073 5072 1 
696 1253 1252 1 
697 1251 1250 1 
698 1258 1257 1 
699 32847 32846 1 
700 16835 16834 1 
701 32845 32844 1 
702 7658 7657 1 
703 25443 25442 1 
704 25480 25445 1 
705 3767 3766 1 
706 16095 16094 1 
707 16081 16080 1 
708 27568 27567 1 
709 12482 12481 1 
710 27588 27579 1 
711 12477 12476 1 
712 12471 12470 1 
713 30727 30726 1 
714 30728 30727 1 
715 2380 2379 1 
716 2379 2378 1 
717 2378 2377 1 
718 14421 14420 1 
719 14441 14418 1 
720 7399 7368 1 
721 5089 5072 1 
722 1250 1249 1 
723 1249 1248 1 
724 12735 12706 1 
725 16834 16833 1 
726 32850 32849 1 
727 17348 17347 1 
728 17347 17346 1 
729 17346 17345 1 
730 25442 25441 1 
731 34481 34480 1 
732 34482 34481 1 
733 3768 3767 1 
734 16096 16095 1 
735 27569 27568 1 
736 18089 18066 1 
737 12481 12480 1 
738 12480 12479 1 
739 12486 12485 1 
740 15127 15126 1 
741 30732 30731 1 
742 5537 5536 1 
743 20541 20540 1 
744 5524 5523 1 
745 5522 5521 1 
746 5521 5520 1 
747 512 511 1 
748 14411 14410 1 
749 1245 1244 1 
750 17333 17332 1 
751 17345 17344 1 
752 17344 17343 1 
753 17354 17346 1 
754 25441 25440 1 
755 34495 34481 1 
756 3769 3768 1 
757 16097 16096 1 
758 3777 3776 1 
759 3799 3776 1 
760 19878 19877 1 
761 19877 19876 1 
762 30734 30733 1 
763 5551 5535 1 
764 5536 5535 1 
765 5535 5534 1 
766 20542 20541 1 
767 5520 5519 1 
768 31110 31109 1 
769 35426 35425 1 
770 26978 26977 1 
771 1244 1243 1 
772 17331 17330 1 
773 17335 17334 1 
774 17342 17341 1 
775 25478 25441 1 
776 3770 3769 1 
777 3776 3775 1 
778 18064 18063 1 
779 18059 18058 1 
780 18058 18057 1 
781 18057 18056 1 
782 19873 19872 1 
783 30735 30734 1 
784 30736 30735 1 
785 5550 5531 1 
786 31111 31110 1 
787 31126 31111 1 
788 35428 35427 1 
789 35461 35427 1 
790 14407 14406 1 
791 14406 14405 1 
792 26972 26971 1 
793 12700 12699 1 
794 12702 12701 1 
795 12703 12702 1 
796 19401 19400 1 
797 14393 14366 1 
798 17336 17335 1 
799 17341 17340 1 
800 34461 34460 1 
801 27075 27041 1 
802 11959 11958 1 
803 11958 11957 1 
804 3773 3772 1 
805 27816 27815 1 
806 27817 27816 1 
807 30973 30972 1 
808 30972 30971 1 
809 23757 23756 1 
810 6943 6942 1 
811 18053 18052 1 
812 18051 18050 1 
813 19866 19865 1 
814 20558 20557 1 
815 20555 20554 1 
816 20554 20553 1 
817 20553 20552 1 
818 35435 35434 1 
819 35429 35428 1 
820 14439 14408 1 
821 22454 22453 1 
822 22438 22437 1 
823 19400 19399 1 
824 14380 14379 1 
825 14381 14380 1 
826 34458 34457 1 
827 17031 17030 1 
828 32882 32881 1 
829 32881 32880 1 
830 11957 11956 1 
831 15489 15488 1 
832 27818 27817 1 
833 27819 27818 1 
834 6944 6943 1 
835 19862 19861 1 
836 19863 19862 1 
837 19864 19863 1 
838 18047 18046 1 
839 18048 18047 1 
840 20562 20561 1 
841 20551 20550 1 
842 20552 20551 1 
843 6835 6834 1 
844 26529 26528 1 
845 35434 35433 1 
846 22462 22461 1 
847 22461 22460 1 
848 22455 22454 1 
849 22453 22452 1 
850 22437 22436 1 
851 14395 14370 1 
852 14371 14370 1 
853 14370 14369 1 
854 14377 14376 1 
855 16320 16319 1 
856 16318 16317 1 
857 14382 14381 1 
858 27049 27048 1 
859 27048 27047 1 
860 11956 11955 1 
861 11955 11954 1 
862 15490 15489 1 
863 15487 15486 1 
864 6947 6946 1 
865 6945 6944 1 
866 1231 1192 1 
867 18085 18047 1 
868 20561 20560 1 
869 20564 20563 1 
870 6836 6835 1 
871 6838 6837 1 
872 15504 15503 1 
873 3116 3115 1 
874 22450 22449 1 
875 22451 22450 1 
876 14375 14374 1 
877 14376 14375 1 
878 16314 16313 1 
879 16315 16314 1 
880 11563 11562 1 
881 11564 11563 1 
882 11565 11564 1 
883 27051 27050 1 
884 11954 11953 1 
885 15485 15484 1 
886 6981 6948 1 
887 6958 6957 1 
888 1194 1193 1 
889 20566 20565 1 
890 6839 6838 1 
891 11605 11604 1 
892 11604 11603 1 
893 31952 31951 1 
894 31951 31950 1 
895 22434 22433 1 
896 31926 31925 1 
897 14374 14373 1 
898 16313 16312 1 
899 11576 11575 1 
900 11568 11567 1 
901 11566 11565 1 
902 13726 13725 1 
903 13725 13724 1 
904 27052 27051 1 
905 13756 13721 1 
906 11951 11950 1 
907 11952 11951 1 
908 25757 25756 1 
909 25758 25757 1 
910 30950 30949 1 
911 30951 30950 1 
912 23748 23747 1 
913 23747 23746 1 
914 6957 6956 1 
915 29201 29200 1 
916 29202 29201 1 
917 1195 1194 1 
918 14247 14246 1 
919 6842 6841 1 
920 6841 6840 1 
921 6840 6839 1 
922 11611 11610 1 
923 11612 11611 1 
924 3097 3096 1 
925 31949 31948 1 
926 31927 31926 1 
927 999 998 1 
928 3483 3477 1 
929 3475 3474 1 
930 13754 13753 1 
931 589 588 1 
932 13727 13726 1 
933 27056 27055 1 
934 27055 27054 1 
935 11946 11945 1 
936 25760 25759 1 
937 25779 25778 1 
938 12420 12394 1 
939 12394 12393 1 
940 12395 12394 1 
941 29199 29198 1 
942 6984 6961 1 
943 1213 1212 1 
944 1214 1213 1 
945 14244 14243 1 
946 14243 14242 1 
947 6850 6840 1 
948 31948 31947 1 
949 1000 999 1 
950 3477 3476 1 
951 13750 13749 1 
952 13753 13752 1 
953 11571 11570 1 
954 11570 11569 1 
955 13728 13727 1 
956 13729 13728 1 
957 13719 13718 1 
958 11943 11942 1 
959 25781 25780 1 
960 25774 25773 1 
961 25772 25771 1 
962 29198 29197 1 
963 1210 1209 1 
964 3564 3563 1 
965 3561 3560 1 
966 14242 14241 1 
967 26563 26562 1 
968 26562 26561 1 
969 14255 14249 1 
970 35777 35776 1 
971 11643 11614 1 
972 11597 11596 1 
973 11599 11598 1 
974 11600 11599 1 
975 11637 11600 1 
976 31947 31946 1 
977 31946 31945 1 
978 31934 31933 1 
979 13751 13750 1 
980 13752 13751 1 
981 13738 13737 1 
982 13735 13734 1 
983 13736 13735 1 
984 13718 13717 1 
985 13717 13716 1 
986 25782 25781 1 
987 25768 25767 1 
988 25773 25772 1 
989 25771 25770 1 
990 1206 1205 1 
991 3565 3564 1 
992 3562 3561 1 
993 14241 14240 1 
994 14240 14239 1 
995 35776 35775 1 
996 1874 1873 1 
997 28134 28133 1 
998 21096 21095 1 
999 21097 21096 1 
1000 31945 31944 1 
1001 1003 1002 1 
1002 31935 31934 1 
1003 8700 8699 1 
1004 29282 29255 1 
1005 13742 13741 1 
1006 17536 17529 1 
1007 17532 17531 1 
1008 27476 27475 1 
1009 25769 25768 1 
1010 27479 27478 1 
1011 1207 1206 1 
1012 5868 5867 1 
1013 5869 5868 1 
1014 14237 14236 1 
1015 14253 14239 1 
1016 1892 1880 1 
1017 1875 1874 1 
1018 11636 11596 1 
1019 21087 21086 1 
1020 21085 21084 1 
1021 21112 21111 1 
1022 21099 21098 1 
1023 1013 1005 1 
1024 8698 8697 1 
1025 8699 8698 1 
1026 8701 8700 1 
1027 29258 29257 1 
1028 29256 29255 1 
1029 29255 29254 1 
1030 29254 29253 1 
1031 3031 2994 1 
1032 2995 2994 1 
1033 17529 17528 1 
1034 17537 17530 1 
1035 27475 27474 1 
1036 27477 27476 1 
1037 27471 27470 1 
1038 27480 27479 1 
1039 27467 27466 1 
1040 5871 5870 1 
1041 5870 5869 1 
1042 18815 18814 1 
1043 35317 35316 1 
1044 35316 35315 1 
1045 1891 1877 1 
1046 1876 1875 1 
1047 35762 35761 1 
1048 35763 35762 1 
1049 21086 21085 1 
1050 21103 21102 1 
1051 21104 21103 1 
1052 21100 21099 1 
1053 32306 32305 1 
1054 314 285 1 
1055 5627 5626 1 
1056 5628 5627 1 
1057 29257 29256 1 
1058 3012 3011 1 
1059 3011 3010 1 
1060 3033 3009 1 
1061 6596 6595 1 
1062 6595 6594 1 
1063 30847 30846 1 
1064 30848 30847 1 
1065 27481 27480 1 
1066 18817 18816 1 
1067 18816 18815 1 
1068 18814 18813 1 
1069 18813 18812 1 
1070 35315 35314 1 
1071 18825 18809 1 
1072 35761 35760 1 
1073 21118 21086 1 
1074 28138 28137 1 
1075 21101 21100 1 
1076 32309 32308 1 
1077 29277 29239 1 
1078 29240 29239 1 
1079 29244 29243 1 
1080 29252 29251 1 
1081 29280 29252 1 
1082 3015 3014 1 
1083 3016 3015 1 
1084 32407 32406 1 
1085 32408 32407 1 
1086 30844 30843 1 
1087 30845 30844 1 
1088 30359 30358 1 
1089 19113 19112 1 
1090 18819 18818 1 
1091 18812 18811 1 
1092 32976 32975 1 
1093 32982 32975 1 
1094 1865 1864 1 
1095 32978 32964 1 
1096 32965 32964 1 
1097 6655 6654 1 
1098 35760 35759 1 
1099 28148 28144 1 
1100 32321 32320 1 
1101 32320 32319 1 
1102 32316 32315 1 
1103 32315 32314 1 
1104 32310 32309 1 
1105 8693 8692 1 
1106 29239 29238 1 
1107 29242 29241 1 
1108 32404 32403 1 
1109 32406 32405 1 
1110 24932 24931 1 
1111 32409 32408 1 
1112 2154 2153 1 
1113 2153 2152 1 
1114 2152 2151 1 
1115 19148 19108 1 
1116 19112 19111 1 
1117 19111 19110 1 
1118 19115 19114 1 
1119 35328 35312 1 
1120 35312 35311 1 
1121 32980 32968 1 
1122 32968 32967 1 
1123 32966 32965 1 
1124 32964 32963 1 
1125 6656 6655 1 
1126 6654 6653 1 
1127 28144 28143 1 
1128 35740 35739 1 
1129 32314 32313 1 
1130 32313 32312 1 
1131 19498 19497 1 
1132 19499 19498 1 
1133 20387 20363 1 
1134 20360 20359 1 
1135 20358 20357 1 
1136 20386 20354 1 
1137 32403 32402 1 
1138 32405 32404 1 
1139 24933 24932 1 
1140 24966 24934 1 
1141 27733 27732 1 
1142 27772 27733 1 
1143 19110 19109 1 
1144 30465 30464 1 
1145 4843 4842 1 
1146 4855 4842 1 
1147 29305 29304 1 
1148 32979 32967 1 
1149 32963 32962 1 
1150 35756 35755 1 
1151 35752 35751 1 
1152 35757 35756 1 
1153 31720 31684 1 
1154 31684 31683 1 
1155 31685 31684 1 
1156 35778 35742 1 
1157 6113 6112 1 
1158 19496 19495 1 
1159 19495 19494 1 
1160 20359 20358 1 
1161 20356 20355 1 
1162 32420 32403 1 
1163 28268 28267 1 
1164 28269 28268 1 
1165 30857 30856 1 
1166 11291 11290 1 
1167 11293 11292 1 
1168 11294 11293 1 
1169 30470 30469 1 
1170 30468 30467 1 
1171 30466 30465 1 
1172 30461 30460 1 
1173 26101 26100 1 
1174 26102 26101 1 
1175 32962 32961 1 
1176 8816 8815 1 
1177 31690 31689 1 
1178 19489 19488 1 
1179 308 307 1 
1180 19502 19501 1 
1181 19080 19079 1 
1182 19079 19078 1 
1183 7940 7939 1 
1184 7944 7943 1 
1185 7943 7942 1 
1186 30860 30859 1 
1187 11316 11291 1 
1188 29332 29310 1 
1189 4368 4367 1 
1190 4367 4366 1 
1191 14791 14790 1 
1192 26100 26099 1 
1193 26103 26102 1 
1194 26104 26103 1 
1195 32960 32959 1 
1196 8813 8812 1 
1197 22824 22823 1 
1198 31701 31700 1 
1199 31706 31705 1 
1200 31705 31704 1 
1201 19490 19489 1 
1202 18312 18311 1 
1203 18311 18310 1 
1204 19104 19080 1 
1205 19081 19080 1 
1206 28265 28264 1 
1207 32387 32386 1 
1208 30861 30860 1 
1209 32652 32625 1 
1210 32610 32609 1 
1211 2030 2013 1 
1212 1993 1992 1 
1213 1991 1990 1 
1214 4369 4368 1 
1215 14790 14789 1 
1216 26099 26098 1 
1217 26098 26097 1 
1218 33254 33253 1 
1219 33258 33254 1 
1220 33253 33252 1 
1221 12763 12762 1 
1222 8814 8813 1 
1223 22823 22822 1 
1224 22822 22821 1 
1225 31700 31699 1 
1226 31707 31706 1 
1227 34037 34007 1 
1228 34007 34006 1 
1229 18313 18312 1 
1230 18310 18309 1 
1231 34772 34771 1 
1232 34767 34766 1 
1233 34768 34767 1 
1234 7937 7936 1 
1235 7936 7935 1 
1236 32386 32385 1 
1237 11286 11285 1 
1238 11287 11286 1 
1239 3128 3127 1 
1240 24479 24478 1 
1241 24480 24479 1 
1242 32625 32624 1 
1243 32626 32625 1 
1244 2013 2012 1 
1245 2014 2013 1 
1246 1990 1989 1 
1247 4370 4369 1 
1248 22821 22820 1 
1249 31709 31708 1 
1250 34005 34004 1 
1251 18306 18305 1 
1252 5093 5092 1 
1253 5092 5091 1 
1254 34770 34769 1 
1255 34783 34770 1 
1256 19061 19060 1 
1257 7951 7935 1 
1258 32385 32384 1 
1259 11285 11284 1 
1260 7227 7226 1 
1261 3129 3128 1 
1262 3130 3129 1 
1263 24509 24478 1 
1264 2011 2010 1 
1265 2015 2014 1 
1266 1440 1439 1 
1267 4371 4370 1 
1268 34873 34861 1 
1269 8364 8363 1 
1270 12599 12592 1 
1271 31717 31716 1 
1272 22817 22816 1 
1273 22864 22863 1 
1274 22863 22862 1 
1275 3741 3740 1 
1276 3739 3738 1 
1277 7266 7246 1 
1278 4453 4452 1 
1279 7228 7227 1 
1280 3131 3130 1 
1281 35888 35887 1 
1282 35889 35888 1 
1283 1438 1437 1 
1284 1439 1438 1 
1285 9360 9359 1 
1286 26091 26090 1 
1287 8363 8362 1 
1288 12594 12593 1 
1289 31718 31717 1 
1290 22816 22815 1 
1291 22815 22814 1 
1292 22867 22866 1 
1293 22862 22861 1 
1294 3753 3743 1 
1295 3743 3742 1 
1296 3738 3737 1 
1297 3733 3732 1 
1298 7246 7245 1 
1299 7247 7246 1 
1300 7243 7242 1 
1301 4454 4453 1 
1302 4456 4455 1 
1303 4455 4454 1 
1304 26236 26235 1 
1305 35890 35889 1 
1306 1435 1434 1 
1307 22274 22273 1 
1308 9361 9360 1 
1309 4375 4374 1 
1310 1300 1299 1 
1311 1301 1300 1 
1312 8359 8358 1 
1313 17872 17871 1 
1314 31719 31718 1 
1315 17865 17864 1 
1316 17864 17863 1 
1317 22853 22852 1 
1318 3731 3730 1 
1319 33484 33483 1 
1320 7234 7233 1 
1321 34535 34534 1 
1322 7263 7229 1 
1323 26235 26234 1 
1324 35885 35884 1 
1325 1468 1432 1 
1326 1434 1433 1 
1327 4378 4377 1 
1328 4377 4376 1 
1329 4376 4375 1 
1330 1297 1296 1 
1331 1298 1297 1 
1332 1328 1298 1 
1333 17799 17798 1 
1334 17798 17797 1 
1335 26076 26075 1 
1336 8368 8358 1 
1337 17873 17872 1 
1338 17875 17874 1 
1339 17877 17876 1 
1340 22856 22855 1 
1341 22850 22849 1 
1342 2276 2275 1 
1343 2275 2274 1 
1344 26425 26424 1 
1345 26424 26423 1 
1346 24514 24513 1 
1347 33483 33482 1 
1348 7922 7921 1 
1349 7921 7920 1 
1350 7920 7919 1 
1351 34534 34533 1 
1352 4467 4466 1 
1353 12066 12065 1 
1354 26234 26233 1 
1355 1432 1431 1 
1356 1433 1432 1 
1357 4379 4378 1 
1358 1325 1291 1 
1359 1292 1291 1 
1360 33235 33234 1 
1361 17797 17796 1 
1362 17785 17784 1 
1363 17796 17795 1 
1364 8355 8354 1 
1365 8354 8353 1 
1366 30549 30548 1 
1367 30550 30549 1 
1368 17880 17879 1 
1369 17881 17880 1 
1370 17882 17881 1 
1371 17886 17885 1 
1372 22857 22856 1 
1373 22858 22857 1 
1374 22872 22858 1 
1375 26420 26419 1 
1376 26421 26420 1 
1377 26423 26422 1 
1378 10925 10924 1 
1379 7911 7910 1 
1380 7918 7917 1 
1381 7917 7916 1 
1382 33321 33320 1 
1383 33324 33323 1 
1384 33337 33336 1 
1385 33328 33327 1 
1386 26222 26221 1 
1387 11905 11904 1 
1388 1327 1293 1 
1389 17782 17781 1 
1390 17780 17779 1 
1391 4440 4415 1 
1392 4415 4414 1 
1393 30551 30550 1 
1394 30553 30552 1 
1395 30567 30553 1 
1396 17884 17883 1 
1397 26401 26400 1 
1398 7173 7172 1 
1399 26418 26417 1 
1400 3750 3715 1 
1401 3717 3716 1 
1402 33480 33479 1 
1403 10926 10925 1 
1404 33479 33478 1 
1405 29590 29589 1 
1406 29591 29590 1 
1407 33323 33322 1 
1408 33338 33337 1 
1409 33344 33343 1 
1410 11919 11904 1 
1411 11904 11903 1 
1412 11903 11902 1 
1413 17781 17780 1 
1414 4426 4425 1 
1415 30552 30551 1 
1416 30554 30553 1 
1417 26402 26401 1 
1418 26404 26403 1 
1419 34427 34426 1 
1420 26411 26410 1 
1421 3715 3714 1 
1422 3716 3715 1 
1423 24604 24603 1 
1424 33478 33477 1 
1425 33477 33476 1 
1426 14920 14919 1 
1427 14921 14920 1 
1428 736 735 1 
1429 737 736 1 
1430 775 738 1 
1431 31821 31820 1 
1432 13527 13526 1 
1433 13528 13527 1 
1434 11917 11902 1 
1435 11902 11901 1 
1436 1672 1671 1 
1437 17807 17771 1 
1438 11450 11414 1 
1439 11413 11412 1 
1440 16970 16969 1 
1441 16973 16972 1 
1442 21303 21302 1 
1443 1510 1509 1 
1444 34426 34425 1 
1445 26410 26409 1 
1446 16241 16213 1 
1447 33473 33472 1 
1448 33474 33473 1 
1449 4707 4706 1 
1450 14918 14917 1 
1451 16236 16235 1 
1452 739 738 1 
1453 738 737 1 
1454 33312 33311 1 
1455 13526 13525 1 
1456 13529 13528 1 
1457 11878 11877 1 
1458 11876 11875 1 
1459 11875 11874 1 
1460 11449 11412 1 
1461 11412 11411 1 
1462 16971 16970 1 
1463 4432 4431 1 
1464 1509 1508 1 
1465 34431 34430 1 
1466 34425 34424 1 
1467 34424 34423 1 
1468 15416 15415 1 
1469 21272 21271 1 
1470 14915 14914 1 
1471 14916 14915 1 
1472 14917 14916 1 
1473 16235 16234 1 
1474 740 739 1 
1475 33313 33312 1 
1476 13542 13541 1 
1477 11883 11882 1 
1478 4431 4430 1 
1479 4434 4433 1 
1480 1520 1508 1 
1481 1508 1507 1 
1482 34435 34434 1 
1483 34436 34435 1 
1484 7638 7637 1 
1485 15414 15413 1 
1486 21273 21272 1 
1487 14914 14913 1 
1488 14913 14912 1 
1489 8022 8021 1 
1490 741 740 1 
1491 777 744 1 
1492 21023 20994 1 
1493 13532 13531 1 
1494 13533 13532 1 
1495 27547 27546 1 
1496 27548 27547 1 
1497 27585 27548 1 
1498 13539 13538 1 
1499 23182 23181 1 
1500 23192 23181 1 
1501 13555 13554 1 
1502 1507 1506 1 
1503 24325 24290 1 
1504 34434 34433 1 
1505 21310 21283 1 
1506 16242 16219 1 
1507 21268 21267 1 
1508 21274 21273 1 
1509 8024 8023 1 
1510 8023 8022 1 
1511 742 741 1 
1512 8043 8028 1 
1513 743 742 1 
1514 6510 6509 1 
1515 27550 27549 1 
1516 27549 27548 1 
1517 28921 28886 1 
1518 23183 23182 1 
1519 13554 13553 1 
1520 28907 28906 1 
1521 28906 28905 1 
1522 28916 28915 1 
1523 3638 3637 1 
1524 3637 3636 1 
1525 3636 3635 1 
1526 3635 3634 1 
1527 3633 3632 1 
1528 3630 3629 1 
1529 3632 3631 1 
1530 3627 3626 1 
1531 34438 34437 1 
1532 7647 7646 1 
1533 21275 21274 1 
1534 21308 21276 1 
1535 8028 8027 1 
1536 756 755 1 
1537 6512 6511 1 
1538 6509 6508 1 
1539 27555 27554 1 
1540 6502 6501 1 
1541 23193 23183 1 
1542 13552 13551 1 
1543 13553 13552 1 
1544 28905 28904 1 
1545 28914 28913 1 
1546 3659 3644 1 
1547 18770 18769 1 
1548 29037 29036 1 
1549 29038 29037 1 
1550 29059 29038 1 
1551 34439 34438 1 
1552 7651 7650 1 
1553 21282 21281 1 
1554 21281 21280 1 
1555 21279 21278 1 
1556 21280 21279 1 
1557 21277 21276 1 
1558 25448 25447 1 
1559 25753 25734 1 
1560 8039 8008 1 
1561 8030 8029 1 
1562 8031 8030 1 
1563 20984 20983 1 
1564 20985 20984 1 
1565 20986 20985 1 
1566 27553 27552 1 
1567 20568 20528 1 
1568 28888 28887 1 
1569 13548 13547 1 
1570 13568 13550 1 
1571 34788 34787 1 
1572 3660 3645 1 
1573 3643 3642 1 
1574 14429 14428 1 
1575 14444 14430 1 
1576 12718 12717 1 
1577 29022 29021 1 
1578 29036 29035 1 
1579 7652 7651 1 
1580 7655 7654 1 
1581 25447 25446 1 
1582 8012 8011 1 
1583 8008 8007 1 
1584 8032 8031 1 
1585 20983 20982 1 
1586 27577 27576 1 
1587 27587 27561 1 
1588 6527 6506 1 